/*--------------------------------*- C++ -*----------------------------------*\
| =========                 |                                                 |
| \\      /  F ield         | OpenFOAM: The Open Source CFD Toolbox           |
|  \\    /   O peration     | Version:  3.0.1                                 |
|   \\  /    A nd           | Web:      www.OpenFOAM.org                      |
|    \\/     M anipulation  |                                                 |
\*---------------------------------------------------------------------------*/
FoamFile
{
    version     2.0;
    format      ascii;
    class       volScalarField;
    object      T;
}
// * * * * * * * * * * * * * * * * * * * * * * * * * * * * * * * * * * * * * //

dimensions      [0 0 0 1 0 0 0];

internalField   uniform 393.15;

boundaryField
{
    wallIn
    {
        type            externalWallHeatFluxTemperature;
        kappaMethod     lookup;
        mode            coefficient;
        Ta              uniform 493.15;
        h               uniform 1.25e3;
        value           uniform 393.15; //initial temperature [K]
        kappa           mojKappaOut;
        Qr              none;
        relaxation      1;
    }

    wallOut
    {
        type            externalWallHeatFluxTemperature;
        kappaMethod     lookup;
        mode            coefficient;
        Ta              uniform 493.15;
        h               uniform 1.25e3;
        value           uniform 393.15; //initial temperature [K]
        kappa           mojKappaOut;
        Qr              none;
        relaxation      1;
    }

    wallUp
    {
        type            empty;
    }

    wallDown
    {
        type            empty;
    }


    defaultFaces
    {
        type            empty;
    }
}

// ************************************************************************* //
