/*--------------------------------*- C++ -*----------------------------------*\
| =========                 |                                                 |
| \\      /  F ield         | OpenFOAM: The Open Source CFD Toolbox           |
|  \\    /   O peration     | Version:  3.0.1                                 |
|   \\  /    A nd           | Web:      www.OpenFOAM.org                      |
|    \\/     M anipulation  |                                                 |
\*---------------------------------------------------------------------------*/
FoamFile
{
    version     2.0;
    format      ascii;
    class       volScalarField;
    object      T;
}
// * * * * * * * * * * * * * * * * * * * * * * * * * * * * * * * * * * * * * //

dimensions      [0 0 0 1 0 0 0];

internalField   uniform 503.15;

boundaryField
{
    walls
    {
        type            externalWallHeatFluxTemperature;
        kappa           lookup;
        //q               uniform 1000; //ali q, ali Ta in h
        Ta              uniform 323.15;
        h               uniform 1.25e3;
        value           uniform 503.15; //initial temperature [K]
        kappaName       mojKappaOut;
        Qr              none;
        relaxation      1;
    }

    outlet
    {
        type            zeroGradient;
    }

    inlet
    {
        type            fixedValue;
        value           uniform 503.15;
    }


    defaultFaces
    {
        type            empty;
    }
}

// ************************************************************************* //
