/*--------------------------------*- C++ -*----------------------------------*\
| =========                 |                                                 |
| \\      /  F ield         | OpenFOAM: The Open Source CFD Toolbox           |
|  \\    /   O peration     | Version:  3.0.1                                 |
|   \\  /    A nd           | Web:      www.OpenFOAM.org                      |
|    \\/     M anipulation  |                                                 |
\*---------------------------------------------------------------------------*/
FoamFile
{
    version     2.0;
    format      ascii;
    class       volVectorField;
    object      U;
}
// * * * * * * * * * * * * * * * * * * * * * * * * * * * * * * * * * * * * * //

dimensions      [0 1 -1 0 0 0 0];

internalField   uniform (0 0 0);

boundaryField
{
    wallIn
    {
        type            fixedValue;
        value           uniform (0 0 0);
    }

    wallOut
    {
        type            fixedValue;
        value           uniform (0 0 0);
    }

    frontAndBack
    {
        type            empty;
    }

    wallUp
    {
        type            empty;
    }


    wallDown
    {
        type            empty;
    }


}

// ************************************************************************* //
