/*--------------------------------*- C++ -*----------------------------------*\
| =========                 |                                                 |
| \\      /  F ield         | OpenFOAM: The Open Source CFD Toolbox           |
|  \\    /   O peration     | Version:  3.0.1                                 |
|   \\  /    A nd           | Web:      www.OpenFOAM.org                      |
|    \\/     M anipulation  |                                                 |
\*---------------------------------------------------------------------------*/
FoamFile
{
    version     2.0;
    format      ascii;
    class       volScalarField;
    object      p;
}
// * * * * * * * * * * * * * * * * * * * * * * * * * * * * * * * * * * * * * //

dimensions      [1 -1 -2 0 0 0 0];

press 60e6;
internalField   uniform $press;

boundaryField
{
    wallIn
    {
        type            calculated;
        value           uniform $press;
    }

    wallOut
    {
        type            calculated;
        value           uniform $press;
    }

    wallUp
    {
        type            cyclic;
    }

    wallDown
    {
        type            cyclic;
    }

    front
    {
        type            calculated;
        value           uniform $press;
    }

    back
    {
        type            calculated;
        value           uniform $press;
    }
}

// ************************************************************************* //
