/*--------------------------------*- C++ -*----------------------------------*\
| =========                 |                                                 |
| \\      /  F ield         | OpenFOAM: The Open Source CFD Toolbox           |
|  \\    /   O peration     | Version:  3.0.1                                 |
|   \\  /    A nd           | Web:      www.OpenFOAM.org                      |
|    \\/     M anipulation  |                                                 |
\*---------------------------------------------------------------------------*/
FoamFile
{
    version     2.0;
    format      ascii;
    class       volScalarField;
    object      T;
}
// * * * * * * * * * * * * * * * * * * * * * * * * * * * * * * * * * * * * * //

dimensions      [0 0 0 1 0 0 0];

temp PY_PL_HLD_01; // injected by python
internalField   uniform $temp; //200degC

boundaryField
{
    wallIn
    {
        type            fixedValue;
        value           uniform $temp;
    }

    wallOut
    {
        type            fixedValue;
        value           uniform $temp;
    }

    wallUp
    {
        type            cyclic;
    }

    wallDown
    {
        type            cyclic;
    }

    front
    {
        type            fixedValue;
        value           uniform $temp;
    }

    back
    {
        type            fixedValue;
        value           uniform $temp;
    }
}

// ************************************************************************* //
